 Gaussian 09, Revision D.01,
 Gaussian 09:  ES64L-G09RevD.01 24-Apr-2013

 ----------------------------------------------------------------------
 #B3LYP/Gen scf=tight freq=VCD Opt=Tight Integral(Grid=SuperFine) Empir
 icalDispersion=GD3
 ----------------------------------------------------------------------

 -
 0
 -
 Symbolic Z-matrix:
 Charge =  0 Multiplicity = 1

 SCF Done:  E(RB3LYP) =  -467.282162032     A.U. after   14 cycles
 SCF Done:  E(RB3LYP) =  -467.309892316     A.U. after   12 cycles
 SCF Done:  E(RB3LYP) =  -467.317174906     A.U. after   11 cycles
 SCF Done:  E(RB3LYP) =  -467.318974528     A.U. after   11 cycles
 SCF Done:  E(RB3LYP) =  -467.320796436     A.U. after   12 cycles
 SCF Done:  E(RB3LYP) =  -467.322243923     A.U. after   12 cycles
 SCF Done:  E(RB3LYP) =  -467.323963759     A.U. after   10 cycles
 SCF Done:  E(RB3LYP) =  -467.324903342     A.U. after   11 cycles
 SCF Done:  E(RB3LYP) =  -467.326153695     A.U. after   11 cycles
 SCF Done:  E(RB3LYP) =  -467.326847779     A.U. after   10 cycles
 SCF Done:  E(RB3LYP) =  -467.328004576     A.U. after    7 cycles
 SCF Done:  E(RB3LYP) =  -467.328005597     A.U. after    7 cycles
 SCF Done:  E(RB3LYP) =  -467.328005677     A.U. after    6 cycles
 SCF Done:  E(RB3LYP) =  -467.328005684     A.U. after    5 cycles
 SCF Done:  E(RB3LYP) =  -467.328005685     A.U. after    4 cycles
 SCF Done:  E(RB3LYP) =  -467.328005685     A.U. after    5 cycles
 SCF Done:  E(RB3LYP) =  -467.328005687     A.U. after    4 cycles
 SCF Done:  E(RB3LYP) =  -467.328005688     A.U. after    4 cycles
 SCF Done:  E(RB3LYP) =  -467.328005689     A.U. after    4 cycles
 Optimization completed.
    -- Stationary point found.
 Normal termination of Gaussian 09 at Fri Jun 18 21:21:10 2021.

 ------------------------------------------------------------------
 #N Geom=AllCheck Guess=TCheck SCRF=Check GenChk RB3LYP/ChkBas Freq
 ------------------------------------------------------------------

 Structure from the checkpoint file:  "/scratch/175843940.tmpdir/Gau-22029.chk"
 -
 0
 -
 Charge =  0 Multiplicity = 1

                         Standard orientation:
 ---------------------------------------------------------------------
 Center     Atomic      Atomic             Coordinates (Angstroms)
 Number     Number       Type             X           Y           Z
 ---------------------------------------------------------------------
      1          6           0        1.271183    0.269117    0.689126
      2          8           0        2.570010    0.349185    0.100525
      3          6           0        0.191047    0.658901   -0.346716
      4          6           0       -1.087278    0.007633    0.288670
      5          6           0       -2.337861    0.099174   -0.594975
      6          6           0       -1.484113    0.563202    1.664569
      7          6           0        0.422181   -0.235700   -1.590538
      8          6           0       -0.035701   -1.648168   -1.128087
      9          6           0       -0.447155   -1.409659    0.338560
     10          6           0        0.849542   -1.161210    1.135298
     11          6           0        0.152245    2.143753   -0.648911
     12          1           0        1.231401    0.967850    1.530798
     13          1           0        3.226291    0.204852    0.789057
     14          1           0       -2.179489   -0.229489   -1.619344
     15          1           0       -2.701813    1.128324   -0.634079
     16          1           0       -3.138208   -0.513598   -0.172792
     17          1           0       -2.325023   -0.007184    2.066405
     18          1           0       -1.808927    1.602436    1.577418
     19          1           0       -0.689151    0.531306    2.406451
     20          1           0       -0.170771    0.127301   -2.430668
     21          1           0        1.464934   -0.211270   -1.897903
     22          1           0        0.760991   -2.389329   -1.202916
     23          1           0       -0.871604   -2.017839   -1.722710
     24          1           0       -1.083843   -2.191110    0.756211
     25          1           0        1.628828   -1.881278    0.880871
     26          1           0        0.688845   -1.216290    2.212690
     27          1           0       -0.624839    2.378547   -1.379386
     28          1           0        1.109369    2.471154   -1.059098
     29          1           0       -0.041609    2.729882    0.252828
 ---------------------------------------------------------------------

 SCF Done:  E(RB3LYP) =  -467.328005689     A.U. after    1 cycles

      1  C    Isotropic =    99.8954   Anisotropy =    38.9281

      2  O    Isotropic =   271.1495   Anisotropy =    36.7690

      3  C    Isotropic =   127.6728   Anisotropy =    33.0342

      4  C    Isotropic =   128.3882   Anisotropy =    19.0990

      5  C    Isotropic =   162.0506   Anisotropy =    37.0917

      6  C    Isotropic =   163.0700   Anisotropy =    35.2856

      7  C    Isotropic =   154.2301   Anisotropy =    41.5436

      8  C    Isotropic =   151.5198   Anisotropy =    24.9773

      9  C    Isotropic =   131.6534   Anisotropy =    41.6078

     10  C    Isotropic =   138.9952   Anisotropy =    25.3348

     11  C    Isotropic =   168.2810   Anisotropy =    31.0254

     12  H    Isotropic =    27.7622   Anisotropy =     3.7342

     13  H    Isotropic =    31.5898   Anisotropy =    18.9244

     14  H    Isotropic =    30.7374   Anisotropy =     8.7890

     15  H    Isotropic =    31.1646   Anisotropy =     8.7655

     16  H    Isotropic =    31.2593   Anisotropy =     9.9994

     17  H    Isotropic =    31.1859   Anisotropy =     9.9612

     18  H    Isotropic =    31.1438   Anisotropy =     8.5810

     19  H    Isotropic =    30.9296   Anisotropy =     8.7203

     20  H    Isotropic =    30.7281   Anisotropy =     8.5952

     21  H    Isotropic =    29.5911   Anisotropy =     7.4934

     22  H    Isotropic =    30.6292   Anisotropy =     9.9551

     23  H    Isotropic =    30.1325   Anisotropy =    10.3016

     24  H    Isotropic =    30.3685   Anisotropy =     8.9695

     25  H    Isotropic =    31.0020   Anisotropy =     8.2893

     26  H    Isotropic =    29.7055   Anisotropy =     8.3303

     27  H    Isotropic =    31.2911   Anisotropy =     9.0747

     28  H    Isotropic =    30.5684   Anisotropy =     9.5556

     29  H    Isotropic =    31.2302   Anisotropy =     9.5638

 The electronic state is 1-A.
 Alpha  occ. eigenvalues --  -19.12330 -10.21524 -10.17820 -10.17282 -10.16750
 Alpha  occ. eigenvalues --  -10.16065 -10.15728 -10.15725 -10.15509 -10.15254
 Alpha  occ. eigenvalues --  -10.15198  -1.02118  -0.87524  -0.76076  -0.75387
 Alpha  occ. eigenvalues --   -0.73788  -0.67759  -0.66400  -0.62997  -0.60491
 Alpha  occ. eigenvalues --   -0.54668  -0.51672  -0.50058  -0.47834  -0.46871
 Alpha  occ. eigenvalues --   -0.44499  -0.43846  -0.41330  -0.40640  -0.39834
 Alpha  occ. eigenvalues --   -0.39014  -0.38544  -0.37762  -0.37163  -0.35947
 Alpha  occ. eigenvalues --   -0.34466  -0.33201  -0.32457  -0.31456  -0.31414
 Alpha  occ. eigenvalues --   -0.28919  -0.28573  -0.26892
 Alpha virt. eigenvalues --    0.02027   0.03759   0.05413   0.05844   0.06371
 Alpha virt. eigenvalues --    0.07717   0.09083   0.09568   0.09935   0.10532
 Alpha virt. eigenvalues --    0.10909   0.11889   0.12529   0.12823   0.13708

 Mulliken charges:
               1
     1  C   -0.063586
     2  O   -0.460615
     3  C    0.284752
     4  C    0.114425
     5  C   -0.404601
     6  C   -0.403475
     7  C   -0.273809
     8  C   -0.240698
     9  C    0.027590
    10  C   -0.196459
    11  C   -0.393143
    12  H    0.073382
    13  H    0.292995
    14  H    0.117802
    15  H    0.112614
    16  H    0.108512
    17  H    0.109925
    18  H    0.114440
    19  H    0.111493
    20  H    0.099292
    21  H    0.107594
    22  H    0.082842
    23  H    0.098176
    24  H    0.068357
    25  H    0.070521
    26  H    0.100786
    27  H    0.110129
    28  H    0.127296
    29  H    0.103463
 Sum of Mulliken charges =   0.00000

 Dipole moment (field-independent basis, Debye):
    X=             -0.1532    Y=             -0.3164    Z=              1.3678  Tot=              1.4122
 Quadrupole moment (field-independent basis, Debye-Ang):
   XX=            -69.5613   YY=            -71.8698   ZZ=            -69.8362
   XY=             -0.8919   XZ=              4.3669   YZ=              0.2370

  Exact polarizability: 118.577  -1.312 113.501  -0.023  -0.070 111.493
 Approx polarizability: 166.877  -0.731 162.600  -0.278  -0.170 164.134

                      1                      2                      3
                      A                      A                      A
 Frequencies --    112.5784               185.7635               224.1868
 Red. masses --      2.1164                 1.2336                 1.6181
 Frc consts  --      0.0158                 0.0251                 0.0479
 IR Inten    --      0.2782                 0.1635                15.8685

                      4                      5                      6
                      A                      A                      A
 Frequencies --    226.9290               235.6573               242.3698
 Red. masses --      1.5028                 1.1885                 1.8829
 Frc consts  --      0.0456                 0.0389                 0.0652
 IR Inten    --     26.4651                13.7699                38.0320

                      7                      8                      9
                      A                      A                      A
 Frequencies --    246.2532               260.9028               317.1321
 Red. masses --      1.2269                 2.3359                 2.7860
 Frc consts  --      0.0438                 0.0937                 0.1651
 IR Inten    --      6.2272                 0.1980                 3.0823

                     10                     11                     12
                      A                      A                      A
 Frequencies --    344.9172               368.2833               401.6419
 Red. masses --      2.4190                 2.1676                 2.7817
 Frc consts  --      0.1696                 0.1732                 0.2644
 IR Inten    --      4.0505                 0.5059                 0.9072

                     13                     14                     15
                      A                      A                      A
 Frequencies --    439.4360               466.7772               503.3586
 Red. masses --      2.0439                 2.6590                 3.3094
 Frc consts  --      0.2325                 0.3413                 0.4940
 IR Inten    --      0.1624                 2.2258                 0.1665

                     16                     17                     18
                      A                      A                      A
 Frequencies --    531.3680               584.5210               600.7254
 Red. masses --      2.8778                 4.0349                 3.3613
 Frc consts  --      0.4787                 0.8122                 0.7147
 IR Inten    --      4.1770                 0.5367                 0.5164

                     19                     20                     21
                      A                      A                      A
 Frequencies --    653.5216               752.1919               776.9821
 Red. masses --      3.5056                 2.5445                 2.1918
 Frc consts  --      0.8821                 0.8482                 0.7796
 IR Inten    --      1.7638                 0.5963                 2.7615

                     22                     23                     24
                      A                      A                      A
 Frequencies --    840.7458               848.2670               891.9434
 Red. masses --      2.2684                 1.5514                 2.2325
 Frc consts  --      0.9447                 0.6577                 1.0464
 IR Inten    --      6.6474                 1.7419                 0.0419

                     25                     26                     27
                      A                      A                      A
 Frequencies --    928.9698               947.9101               955.8152
 Red. masses --      2.5620                 1.9231                 1.8728
 Frc consts  --      1.3026                 1.0181                 1.0081
 IR Inten    --      0.4669                 4.5923                11.4575

                     28                     29                     30
                      A                      A                      A
 Frequencies --    959.2500               964.1945               986.8368
 Red. masses --      1.6509                 1.5946                 2.4140
 Frc consts  --      0.8950                 0.8734                 1.3851
 IR Inten    --      1.1185                 0.6902                 4.0020

                     31                     32                     33
                      A                      A                      A
 Frequencies --   1010.8155              1031.5561              1051.7086
 Red. masses --      1.5431                 2.2056                 1.8088
 Frc consts  --      0.9289                 1.3828                 1.1788
 IR Inten    --      5.2794                17.0918                26.5483

                     34                     35                     36
                      A                      A                      A
 Frequencies --   1079.7639              1110.2479              1129.8468
 Red. masses --      1.9141                 1.2737                 1.5015
 Frc consts  --      1.3148                 0.9250                 1.1293
 IR Inten    --     36.6687                 2.9502                20.7572

                     37                     38                     39
                      A                      A                      A
 Frequencies --   1158.7946              1169.7797              1193.2947
 Red. masses --      1.9682                 2.1324                 1.8768
 Frc consts  --      1.5572                 1.7192                 1.5746
 IR Inten    --      8.1094                 1.2148                 1.0276

                     40                     41                     42
                      A                      A                      A
 Frequencies --   1211.6065              1226.0459              1244.3233
 Red. masses --      1.4136                 2.0375                 1.8637
 Frc consts  --      1.2226                 1.8045                 1.7002
 IR Inten    --     14.0884                 1.7907                 2.6874

                     43                     44                     45
                      A                      A                      A
 Frequencies --   1258.4597              1270.9377              1283.3574
 Red. masses --      1.6503                 1.3487                 1.6313
 Frc consts  --      1.5399                 1.2835                 1.5830
 IR Inten    --      9.3098                 9.4846                 2.5442

                     46                     47                     48
                      A                      A                      A
 Frequencies --   1306.8071              1321.2602              1334.6429
 Red. masses --      1.9575                 1.4887                 1.5073
 Frc consts  --      1.9696                 1.5313                 1.5819
 IR Inten    --      0.8124                 6.0329                 2.2104

                     49                     50                     51
                      A                      A                      A
 Frequencies --   1339.3947              1367.5400              1408.6808
 Red. masses --      1.6055                 1.5550                 1.2402
 Frc consts  --      1.6970                 1.7134                 1.4501
 IR Inten    --      2.3189                 7.5162                 6.7250

                     52                     53                     54
                      A                      A                      A
 Frequencies --   1412.5568              1427.0562              1435.5031
 Red. masses --      1.2805                 1.2860                 1.2274
 Frc consts  --      1.5053                 1.5431                 1.4902
 IR Inten    --      5.9560                 5.5707                 6.3611

                     55                     56                     57
                      A                      A                      A
 Frequencies --   1485.9284              1488.6798              1497.4737
 Red. masses --      1.0633                 1.0546                 1.0509
 Frc consts  --      1.3832                 1.3770                 1.3885
 IR Inten    --      0.1555                 2.6732                 3.4253

                     58                     59                     60
                      A                      A                      A
 Frequencies --   1501.3063              1504.0797              1509.4585
 Red. masses --      1.0655                 1.0644                 1.0546
 Frc consts  --      1.4150                 1.4187                 1.4157
 IR Inten    --      8.2269                 9.1545                 1.3597

                     61                     62                     63
                      A                      A                      A
 Frequencies --   1514.1095              1526.1191              1532.2449
 Red. masses --      1.0684                 1.0637                 1.0815
 Frc consts  --      1.4431                 1.4597                 1.4961
 IR Inten    --      1.1421                 8.5074                 7.0899

                     64                     65                     66
                      A                      A                      A
 Frequencies --   3002.7231              3024.2853              3028.4354
 Red. masses --      1.0847                 1.0360                 1.0407
 Frc consts  --      5.7622                 5.5829                 5.6238
 IR Inten    --     34.5228                26.1783                11.9992

                     67                     68                     69
                      A                      A                      A
 Frequencies --   3035.0769              3047.0108              3049.1695
 Red. masses --      1.0407                 1.0624                 1.0614
 Frc consts  --      5.6483                 5.8117                 5.8145
 IR Inten    --     59.7733                27.0242                28.4506

                     70                     71                     72
                      A                      A                      A
 Frequencies --   3060.3022              3070.3042              3075.3911
 Red. masses --      1.0720                 1.0840                 1.1014
 Frc consts  --      5.9151                 6.0208                 6.1374
 IR Inten    --     36.2960                50.5763                 1.9798

                     73                     74                     75
                      A                      A                      A
 Frequencies --   3080.6813              3082.7058              3083.9793
 Red. masses --      1.1035                 1.1000                 1.1003
 Frc consts  --      6.1705                 6.1590                 6.1655
 IR Inten    --     22.8268                59.6048                35.8160

                     76                     77                     78
                      A                      A                      A
 Frequencies --   3087.6474              3092.6176              3118.8569
 Red. masses --      1.1041                 1.1010                 1.0968
 Frc consts  --      6.2018                 6.2042                 6.2860
 IR Inten    --     39.0137                18.6543                22.0825

                     79                     80                     81
                      A                      A                      A
 Frequencies --   3121.6392              3128.0934              3814.2910
 Red. masses --      1.0953                 1.0952                 1.0666
 Frc consts  --      6.2888                 6.3137                 9.1426
 IR Inten    --     36.5999                23.1144                29.9501

 - Thermochemistry -
 -------------------
 Temperature   298.150 Kelvin.  Pressure   1.00000 Atm.
 Atom     1 has atomic number  6 and mass  12.00000

 Molecular mass:   154.13577 amu.
 Principal axes and moments of inertia in atomic units:
                           1         2         3
     Eigenvalues --  1215.610411618.985661724.23614
           X            0.99959  -0.02784   0.00616
           Y            0.02776   0.99953   0.01317
           Z           -0.00652  -0.01299   0.99989
 This molecule is an asymmetric top.
 Rotational symmetry number  1.
 Warning -- assumption of classical behavior for rotation
           may cause significant error
 Rotational temperatures (Kelvin)      0.07125     0.05350     0.05023
 Rotational constants (GHZ):           1.48464     1.11474     1.04669
 Zero-point vibrational energy     694707.5 (Joules/Mol)
                                  166.03907 (Kcal/Mol)
 Warning -- explicit consideration of  18 degrees of freedom as
           vibrations may cause significant error
 Vibrational temperatures:    161.98   267.27   322.55   326.50   339.06
          (Kelvin)            348.72   354.30   375.38   456.28   496.26
                              529.88   577.87   632.25   671.59   724.22
                              764.52   840.99   864.31   940.27  1082.24
                             1117.90  1209.64  1220.47  1283.31  1336.58
                             1363.83  1375.20  1380.15  1387.26  1419.84
                             1454.34  1484.18  1513.17  1553.54  1597.40
                             1625.60  1667.24  1683.05  1716.88  1743.23
                             1764.00  1790.30  1810.64  1828.59  1846.46
                             1880.20  1901.00  1920.25  1927.09  1967.58
                             2026.77  2032.35  2053.21  2065.37  2137.92
                             2141.88  2154.53  2160.04  2164.03  2171.77
                             2178.46  2195.74  2204.56  4320.24  4351.27
                             4357.24  4366.79  4383.96  4387.07  4403.09
                             4417.48  4424.80  4432.41  4435.32  4437.15
                             4442.43  4449.58  4487.33  4491.34  4500.62
                             5487.91

 Zero-point correction=                           0.264600 (Hartree/Particle)
 Thermal correction to Energy=                    0.275618
 Thermal correction to Enthalpy=                  0.276563
 Thermal correction to Gibbs Free Energy=         0.229844
 Sum of electronic and zero-point Energies=           -467.063406
 Sum of electronic and thermal Energies=              -467.052387
 Sum of electronic and thermal Enthalpies=            -467.051443
 Sum of electronic and thermal Free Energies=         -467.098161

                     E (Thermal)             CV                S
                      KCal/Mol        Cal/Mol-Kelvin    Cal/Mol-Kelvin
 Total                  172.953             45.770             98.327
 Electronic               0.000              0.000              0.000
 Translational            0.889              2.981             41.008
 Rotational               0.889              2.981             29.608
 Vibrational            171.176             39.808             27.712
 Vibration     1          0.607              1.939              3.224
 Vibration     2          0.632              1.859              2.270
 Vibration     3          0.649              1.804              1.925
 Vibration     4          0.651              1.800              1.903
 Vibration     5          0.655              1.786              1.835
 Vibration     6          0.659              1.775              1.785
 Vibration     7          0.661              1.769              1.757
 Vibration     8          0.669              1.744              1.656
 Vibration     9          0.704              1.641              1.325
 Vibration    10          0.723              1.586              1.189
 Vibration    11          0.741              1.537              1.087
 Vibration    12          0.767              1.467              0.957
 Vibration    13          0.799              1.384              0.828
 Vibration    14          0.824              1.324              0.747
 Vibration    15          0.859              1.243              0.650
 Vibration    16          0.886              1.181              0.584
 Vibration    17          0.941              1.065              0.477
 Vibration    18          0.959              1.030              0.448

 Optimization completed.
    -- Stationary point found.
 Normal termination of Gaussian 09 at Fri Jun 18 21:55:51 2021.
