 Gaussian 09, Revision D.01,
 Gaussian 09:  ES64L-G09RevD.01 24-Apr-2013

 ----------------------------------------------------------------------
 #B3LYP/Gen scf=tight freq=VCD Opt=Tight Integral(Grid=SuperFine) Empir
 icalDispersion=GD3
 ----------------------------------------------------------------------

 -
 0
 -
 Symbolic Z-matrix:
 Charge =  0 Multiplicity = 1

 SCF Done:  E(RB3LYP) =  -467.280894348     A.U. after   13 cycles
 SCF Done:  E(RB3LYP) =  -467.310914556     A.U. after   11 cycles
 SCF Done:  E(RB3LYP) =  -467.318688068     A.U. after   11 cycles
 SCF Done:  E(RB3LYP) =  -467.320574002     A.U. after   10 cycles
 SCF Done:  E(RB3LYP) =  -467.321453576     A.U. after   10 cycles
 SCF Done:  E(RB3LYP) =  -467.322708364     A.U. after   10 cycles
 SCF Done:  E(RB3LYP) =  -467.322718370     A.U. after   13 cycles
 SCF Done:  E(RB3LYP) =  -467.325810192     A.U. after   11 cycles
 SCF Done:  E(RB3LYP) =  -467.326516607     A.U. after   10 cycles
 SCF Done:  E(RB3LYP) =  -467.327126450     A.U. after   11 cycles
 SCF Done:  E(RB3LYP) =  -467.327300140     A.U. after    9 cycles
 SCF Done:  E(RB3LYP) =  -467.327303722     A.U. after    7 cycles
 SCF Done:  E(RB3LYP) =  -467.327304432     A.U. after    7 cycles
 SCF Done:  E(RB3LYP) =  -467.327304574     A.U. after    6 cycles
 SCF Done:  E(RB3LYP) =  -467.327304676     A.U. after    7 cycles
 SCF Done:  E(RB3LYP) =  -467.327304773     A.U. after    6 cycles
 SCF Done:  E(RB3LYP) =  -467.327304841     A.U. after    6 cycles
 SCF Done:  E(RB3LYP) =  -467.327304855     A.U. after    5 cycles
 SCF Done:  E(RB3LYP) =  -467.327304856     A.U. after    4 cycles
 Optimization completed.
    -- Stationary point found.
 Normal termination of Gaussian 09 at Thu Jun 17 19:26:45 2021.

 ------------------------------------------------------------------
 #N Geom=AllCheck Guess=TCheck SCRF=Check GenChk RB3LYP/ChkBas Freq
 ------------------------------------------------------------------

 Structure from the checkpoint file:  "/scratch/175735572.tmpdir/Gau-31776.chk"
 -
 0
 -
 Charge =  0 Multiplicity = 1

                         Standard orientation:
 ---------------------------------------------------------------------
 Center     Atomic      Atomic             Coordinates (Angstroms)
 Number     Number       Type             X           Y           Z
 ---------------------------------------------------------------------
      1          8           0       -2.459125    0.195321   -0.175509
      2          6           0       -1.356330   -0.641490    0.185740
      3          6           0       -0.190983    0.199975    0.767140
      4          6           0       -0.629467    1.334136    1.670908
      5          6           0        0.654894    0.562997   -0.505339
      6          6           0       -0.047499    1.476479   -1.519458
      7          6           0        2.006617    1.221331   -0.191380
      8          6           0        0.726879   -0.843298    1.457751
      9          6           0        1.390645   -1.607579    0.275814
     10          6           0        0.771072   -0.919285   -0.957614
     11          6           0       -0.701894   -1.368157   -1.025433
     12          1           0       -3.175133   -0.367900   -0.486794
     13          1           0       -1.701412   -1.353575    0.943621
     14          1           0        0.236051    1.879423    2.053380
     15          1           0       -1.188107    0.951845    2.528939
     16          1           0       -1.277322    2.032648    1.142768
     17          1           0        0.557934    1.553823   -2.426595
     18          1           0       -1.042362    1.142760   -1.794110
     19          1           0       -0.151112    2.483740   -1.109815
     20          1           0        1.855223    2.229244    0.200745
     21          1           0        2.594314    1.315173   -1.107829
     22          1           0        2.612679    0.678417    0.530471
     23          1           0        0.155170   -1.498533    2.117347
     24          1           0        1.467819   -0.342550    2.081056
     25          1           0        1.171138   -2.676218    0.290814
     26          1           0        2.475799   -1.506758    0.290628
     27          1           0        1.324230   -1.080759   -1.883848
     28          1           0       -0.802335   -2.453578   -0.968465
     29          1           0       -1.183184   -1.040431   -1.947033
 ---------------------------------------------------------------------

 SCF Done:  E(RB3LYP) =  -467.327304856     A.U. after    1 cycles

      1  O    Isotropic =   250.1568   Anisotropy =    61.5318

      2  C    Isotropic =    96.1475   Anisotropy =    45.6815

      3  C    Isotropic =   127.6523   Anisotropy =    26.4015

      4  C    Isotropic =   170.2932   Anisotropy =    22.2639

      5  C    Isotropic =   130.0229   Anisotropy =    16.8824

      6  C    Isotropic =   161.2459   Anisotropy =    34.2483

      7  C    Isotropic =   161.4011   Anisotropy =    38.3619

      8  C    Isotropic =   144.6246   Anisotropy =    39.8022

      9  C    Isotropic =   152.2963   Anisotropy =    25.6423

     10  C    Isotropic =   131.6993   Anisotropy =    42.6707

     11  C    Isotropic =   136.8906   Anisotropy =    31.1760

     12  H    Isotropic =    31.7305   Anisotropy =    18.3670

     13  H    Isotropic =    28.1456   Anisotropy =     4.7781

     14  H    Isotropic =    31.3231   Anisotropy =     8.7955

     15  H    Isotropic =    31.1000   Anisotropy =    10.8611

     16  H    Isotropic =    30.5135   Anisotropy =     8.5870

     17  H    Isotropic =    31.2279   Anisotropy =    10.0732

     18  H    Isotropic =    29.9579   Anisotropy =     7.1037

     19  H    Isotropic =    31.1187   Anisotropy =     8.3591

     20  H    Isotropic =    31.1289   Anisotropy =     8.6267

     21  H    Isotropic =    31.1771   Anisotropy =     9.9191

     22  H    Isotropic =    30.9736   Anisotropy =     8.9320

     23  H    Isotropic =    30.9770   Anisotropy =     9.1168

     24  H    Isotropic =    30.3421   Anisotropy =     8.3481

     25  H    Isotropic =    30.9394   Anisotropy =    10.7365

     26  H    Isotropic =    30.1577   Anisotropy =    10.3308

     27  H    Isotropic =    30.2787   Anisotropy =     9.1264

     28  H    Isotropic =    30.3088   Anisotropy =     8.9133

     29  H    Isotropic =    30.1560   Anisotropy =     7.9719

 The electronic state is 1-A.
 Alpha  occ. eigenvalues --  -19.12296 -10.21684 -10.17482 -10.17421 -10.16808
 Alpha  occ. eigenvalues --  -10.16220 -10.16207 -10.16185 -10.15294 -10.14940
 Alpha  occ. eigenvalues --  -10.14495  -1.02113  -0.87559  -0.76020  -0.75436
 Alpha  occ. eigenvalues --   -0.73531  -0.67244  -0.66663  -0.62961  -0.60686
 Alpha  occ. eigenvalues --   -0.54161  -0.51779  -0.50519  -0.47717  -0.47037
 Alpha  occ. eigenvalues --   -0.44986  -0.43133  -0.41621  -0.40074  -0.39251
 Alpha  occ. eigenvalues --   -0.38870  -0.38478  -0.37363  -0.37166  -0.36093
 Alpha  occ. eigenvalues --   -0.34089  -0.33722  -0.32681  -0.31286  -0.30643
 Alpha  occ. eigenvalues --   -0.29903  -0.28194  -0.26996
 Alpha virt. eigenvalues --    0.02565   0.03567   0.04979   0.05465   0.06260
 Alpha virt. eigenvalues --    0.08269   0.08731   0.09739   0.10079   0.10703
 Alpha virt. eigenvalues --    0.10817   0.11818   0.12905   0.13407   0.13788

 Mulliken charges:
               1
     1  O   -0.459080
     2  C   -0.005772
     3  C    0.276585
     4  C   -0.385115
     5  C    0.103473
     6  C   -0.382796
     7  C   -0.404267
     8  C   -0.291600
     9  C   -0.224501
    10  C    0.021266
    11  C   -0.235955
    12  H    0.291861
    13  H    0.061948
    14  H    0.107444
    15  H    0.101437
    16  H    0.132435
    17  H    0.099677
    18  H    0.123603
    19  H    0.104764
    20  H    0.113980
    21  H    0.108565
    22  H    0.112329
    23  H    0.084248
    24  H    0.107547
    25  H    0.080811
    26  H    0.102238
    27  H    0.072156
    28  H    0.081973
    29  H    0.100746
 Sum of Mulliken charges =   0.00000

 Dipole moment (field-independent basis, Debye):
    X=             -0.1111    Y=             -1.4218    Z=             -0.1972  Tot=              1.4397
 Quadrupole moment (field-independent basis, Debye-Ang):
   XX=            -68.6867   YY=            -71.1518   ZZ=            -71.1237
   XY=              4.1161   XZ=              1.2466   YZ=              0.3961

  Exact polarizability: 116.264   0.688 115.827   0.155  -0.289 112.307
 Approx polarizability: 165.784   0.589 165.876   0.530  -0.795 163.602

                      1                      2                      3
                      A                      A                      A
 Frequencies --    119.5862               190.5957               218.7041
 Red. masses --      1.8232                 1.4290                 1.4132
 Frc consts  --      0.0154                 0.0306                 0.0398
 IR Inten    --      0.8560                 0.8579                 6.4289

                      4                      5                      6
                      A                      A                      A
 Frequencies --    226.7093               232.8687               248.6743
 Red. masses --      1.1844                 1.1528                 1.5652
 Frc consts  --      0.0359                 0.0368                 0.0570
 IR Inten    --     86.8498                 6.9140                 0.1248

                      7                      8                      9
                      A                      A                      A
 Frequencies --    255.9000               270.4052               297.3280
 Red. masses --      2.1139                 2.7130                 2.6264
 Frc consts  --      0.0816                 0.1169                 0.1368
 IR Inten    --      1.4818                 0.0294                 4.7580

                     10                     11                     12
                      A                      A                      A
 Frequencies --    339.8318               394.8662               407.4217
 Red. masses --      2.0446                 2.7852                 2.7291
 Frc consts  --      0.1391                 0.2559                 0.2669
 IR Inten    --      2.2297                 0.8361                 0.8086

                     13                     14                     15
                      A                      A                      A
 Frequencies --    422.9996               443.2616               498.7155
 Red. masses --      3.3264                 2.2364                 2.0392
 Frc consts  --      0.3507                 0.2589                 0.2988
 IR Inten    --      3.5898                 0.1170                 1.0301

                     16                     17                     18
                      A                      A                      A
 Frequencies --    535.0929               587.9196               635.0570
 Red. masses --      3.5833                 3.7787                 3.4848
 Frc consts  --      0.6045                 0.7695                 0.8280
 IR Inten    --      1.7927                 0.3285                 0.2590

                     19                     20                     21
                      A                      A                      A
 Frequencies --    656.4484               729.6003               797.0709
 Red. masses --      2.9751                 3.3108                 1.5745
 Frc consts  --      0.7554                 1.0384                 0.5894
 IR Inten    --      4.4679                 0.8740                 2.3621

                     22                     23                     24
                      A                      A                      A
 Frequencies --    851.9163               864.0112               877.6513
 Red. masses --      2.1297                 2.8840                 1.8431
 Frc consts  --      0.9107                 1.2685                 0.8365
 IR Inten    --      2.6515                 6.1493                 1.5100

                     25                     26                     27
                      A                      A                      A
 Frequencies --    920.6412               930.8479               953.7591
 Red. masses --      2.0490                 2.4333                 1.9570
 Frc consts  --      1.0232                 1.2422                 1.0488
 IR Inten    --      6.5314                 3.0311                 1.4578

                     28                     29                     30
                      A                      A                      A
 Frequencies --    964.2129               968.1728               978.6847
 Red. masses --      1.5960                 1.7104                 1.9256
 Frc consts  --      0.8742                 0.9446                 1.0867
 IR Inten    --      1.6407                 1.5665                 5.3374

                     31                     32                     33
                      A                      A                      A
 Frequencies --   1005.8546              1024.5443              1042.1701
 Red. masses --      1.7492                 2.2347                 1.4617
 Frc consts  --      1.0427                 1.3821                 0.9354
 IR Inten    --      1.2022                28.2431                 0.8585

                     34                     35                     36
                      A                      A                      A
 Frequencies --   1093.4279              1111.9300              1132.5364
 Red. masses --      2.0181                 1.3357                 1.4591
 Frc consts  --      1.4216                 0.9730                 1.1026
 IR Inten    --     54.3797                 4.5312                15.5618

                     37                     38                     39
                      A                      A                      A
 Frequencies --   1153.2861              1166.5644              1196.8409
 Red. masses --      2.1558                 1.9299                 1.6905
 Frc consts  --      1.6894                 1.5474                 1.4267
 IR Inten    --      0.5298                 4.7541                 1.6507

                     40                     41                     42
                      A                      A                      A
 Frequencies --   1219.1866              1227.8994              1241.4044
 Red. masses --      1.4854                 2.0245                 1.8053
 Frc consts  --      1.3009                 1.7984                 1.6392
 IR Inten    --      2.6855                 2.3264                10.7305

                     43                     44                     45
                      A                      A                      A
 Frequencies --   1246.1323              1261.1846              1282.2044
 Red. masses --      1.4143                 2.1920                 1.3439
 Frc consts  --      1.2940                 2.0542                 1.3018
 IR Inten    --     20.6873                 0.6388                 0.9886

                     46                     47                     48
                      A                      A                      A
 Frequencies --   1302.2415              1313.9368              1330.8494
 Red. masses --      1.8187                 1.4885                 1.4651
 Frc consts  --      1.8172                 1.5141                 1.5289
 IR Inten    --      0.5724                 7.4961                 2.5898

                     49                     50                     51
                      A                      A                      A
 Frequencies --   1342.1867              1356.3260              1410.5310
 Red. masses --      1.6954                 1.6763                 1.2244
 Frc consts  --      1.7995                 1.8169                 1.4353
 IR Inten    --      2.5192                 7.7418                 4.1189

                     52                     53                     54
                      A                      A                      A
 Frequencies --   1415.6593              1425.5649              1436.7554
 Red. masses --      1.2837                 1.2715                 1.2121
 Frc consts  --      1.5157                 1.5224                 1.4742
 IR Inten    --      5.3454                 0.4920                12.9070

                     55                     56                     57
                      A                      A                      A
 Frequencies --   1485.6506              1487.4438              1494.9995
 Red. masses --      1.0520                 1.0645                 1.0529
 Frc consts  --      1.3680                 1.3876                 1.3865
 IR Inten    --      2.9476                 0.5868                 1.9839

                     58                     59                     60
                      A                      A                      A
 Frequencies --   1501.2564              1503.6390              1509.3008
 Red. masses --      1.0619                 1.0626                 1.0608
 Frc consts  --      1.4101                 1.4155                 1.4237
 IR Inten    --     11.0725                 9.8012                 0.0325

                     61                     62                     63
                      A                      A                      A
 Frequencies --   1515.4058              1526.6072              1533.9404
 Red. masses --      1.0660                 1.0743                 1.0710
 Frc consts  --      1.4424                 1.4751                 1.4848
 IR Inten    --      0.3599                10.4419                 4.9722

                     64                     65                     66
                      A                      A                      A
 Frequencies --   2990.7575              3026.4161              3028.2948
 Red. masses --      1.0857                 1.0434                 1.0380
 Frc consts  --      5.7217                 5.6308                 5.6087
 IR Inten    --     41.5398                18.1725                26.5451

                     67                     68                     69
                      A                      A                      A
 Frequencies --   3034.6892              3045.4254              3047.9135
 Red. masses --      1.0414                 1.0621                 1.0626
 Frc consts  --      5.6506                 5.8037                 5.8159
 IR Inten    --     55.1502                32.0013                34.9593

                     70                     71                     72
                      A                      A                      A
 Frequencies --   3054.6230              3072.1955              3074.1248
 Red. masses --      1.0634                 1.0938                 1.1002
 Frc consts  --      5.8461                 6.0824                 6.1256
 IR Inten    --     49.0613                16.4302                 7.4033

                     73                     74                     75
                      A                      A                      A
 Frequencies --   3075.9759              3079.9799              3084.2451
 Red. masses --      1.0950                 1.1007                 1.0996
 Frc consts  --      6.1044                 6.1520                 6.1629
 IR Inten    --     28.5945                42.0866                36.9725

                     76                     77                     78
                      A                      A                      A
 Frequencies --   3089.2323              3094.8544              3113.6383
 Red. masses --      1.1036                 1.1039                 1.0990
 Frc consts  --      6.2051                 6.2298                 6.2775
 IR Inten    --     22.6797                75.8073                14.9506

                     79                     80                     81
                      A                      A                      A
 Frequencies --   3124.0062              3159.9983              3805.2141
 Red. masses --      1.0952                 1.0925                 1.0665
 Frc consts  --      6.2977                 6.4277                 9.0982
 IR Inten    --     32.3491                 9.6609                27.4275

 - Thermochemistry -
 -------------------
 Temperature   298.150 Kelvin.  Pressure   1.00000 Atm.
 Atom     1 has atomic number  8 and mass  15.99491

 Molecular mass:   154.13577 amu.
 Principal axes and moments of inertia in atomic units:
                           1         2         3
     Eigenvalues --  1287.414921548.720421656.03032
           X            0.99914   0.04112   0.00514
           Y           -0.04105   0.99908  -0.01246
           Z           -0.00565   0.01223   0.99991
 This molecule is an asymmetric top.
 Rotational symmetry number  1.
 Warning -- assumption of classical behavior for rotation
           may cause significant error
 Rotational temperatures (Kelvin)      0.06728     0.05593     0.05230
 Rotational constants (GHZ):           1.40183     1.16531     1.08980
 Zero-point vibrational energy     694539.9 (Joules/Mol)
                                  165.99901 (Kcal/Mol)
 Warning -- explicit consideration of  17 degrees of freedom as
           vibrations may cause significant error
 Vibrational temperatures:    172.06   274.22   314.67   326.18   335.05
          (Kelvin)            357.79   368.18   389.05   427.79   488.94
                              568.12   586.19   608.60   637.75   717.54
                              769.88   845.88   913.70   944.48  1049.73
                             1146.81  1225.72  1243.12  1262.74  1324.60
                             1339.28  1372.24  1387.29  1392.98  1408.11
                             1447.20  1474.09  1499.45  1573.20  1599.82
                             1629.47  1659.32  1678.42  1721.98  1754.14
                             1766.67  1786.10  1792.90  1814.56  1844.80
                             1873.63  1890.46  1914.79  1931.10  1951.45
                             2029.44  2036.82  2051.07  2067.17  2137.52
                             2140.10  2150.97  2159.97  2163.40  2171.54
                             2180.33  2196.44  2207.00  4303.03  4354.33
                             4357.04  4366.24  4381.68  4385.26  4394.92
                             4420.20  4422.97  4425.64  4431.40  4437.54
                             4444.71  4452.80  4479.83  4494.74  4546.53
                             5474.85

 Zero-point correction=                           0.264536 (Hartree/Particle)
 Thermal correction to Energy=                    0.275529
 Thermal correction to Enthalpy=                  0.276473
 Thermal correction to Gibbs Free Energy=         0.229858
 Sum of electronic and zero-point Energies=           -467.062769
 Sum of electronic and thermal Energies=              -467.051776
 Sum of electronic and thermal Enthalpies=            -467.050832
 Sum of electronic and thermal Free Energies=         -467.097447

                     E (Thermal)             CV                S
                      KCal/Mol        Cal/Mol-Kelvin    Cal/Mol-Kelvin
 Total                  172.897             45.760             98.110
 Electronic               0.000              0.000              0.000
 Translational            0.889              2.981             41.008
 Rotational               0.889              2.981             29.580
 Vibrational            171.119             39.798             27.522
 Vibration     1          0.609              1.933              3.107
 Vibration     2          0.634              1.853              2.222
 Vibration     3          0.646              1.813              1.970
 Vibration     4          0.650              1.800              1.905
 Vibration     5          0.654              1.791              1.857
 Vibration     6          0.662              1.765              1.740
 Vibration     7          0.666              1.753              1.690
 Vibration     8          0.674              1.728              1.594
 Vibration     9          0.691              1.679              1.432
 Vibration    10          0.720              1.596              1.213
 Vibration    11          0.762              1.481              0.982
 Vibration    12          0.772              1.454              0.936
 Vibration    13          0.785              1.420              0.882
 Vibration    14          0.803              1.376              0.816
 Vibration    15          0.854              1.253              0.661
 Vibration    16          0.890              1.172              0.576
 Vibration    17          0.945              1.058              0.471

 Normal termination of Gaussian 09 at Thu Jun 17 20:10:58 2021.
